 Gaussian 16, Revision A.03,
 Gaussian 16:  ES64L-G16RevA.03 25-Dec-2016

 -------------------------------------------
 #P HF/3-21G FREQ=(HPModes, SaveNormalModes)
 -------------------------------------------

 -------
 comment
 -------
 Symbolic Z-matrix:
 Charge =  0 Multiplicity = 1

                         Standard orientation:
 ---------------------------------------------------------------------
 Center     Atomic      Atomic             Coordinates (Angstroms)
 Number     Number       Type             X           Y           Z
 ---------------------------------------------------------------------
      1          8           0        0.000000   -0.000000    0.114072
      2          1           0        0.000000    0.780464   -0.456286
      3          1           0       -0.000000   -0.780464   -0.456286
 ---------------------------------------------------------------------

 SCF Done:  E(RHF) =  -75.5859597581     A.U. after   10 cycles

 The electronic state is 1-A1.
 Alpha  occ. eigenvalues --  -20.42721  -1.32097  -0.68554  -0.52983  -0.47723
 Alpha virt. eigenvalues --    0.26107   0.36033   1.20666   1.27667   1.78397
 Alpha virt. eigenvalues --    1.86334   2.02480   3.10330

 Mulliken charges:
               1
     1  O   -0.732839
     2  H    0.366419
     3  H    0.366419
 Sum of Mulliken charges =  -0.00000

 Dipole moment (field-independent basis, Debye):
    X=             -0.0000    Y=              0.0000    Z=             -2.3874  Tot=              2.3874
 Quadrupole moment (field-independent basis, Debye-Ang):
   XX=             -6.8380   YY=             -3.9718   ZZ=             -5.8823
   XY=              0.0000   XZ=              0.0000   YZ=              0.0000

  Exact polarizability:   0.783   0.000   6.802   0.000   0.000   3.627
 Approx polarizability:   0.581   0.000   4.866   0.000   0.000   2.824

                      1                      2                      3
                     A1                     A1                     B2
 Frequencies --   1799.2881              3812.3772              3945.8330
 Red. masses --      1.0898                 1.0386                 1.0850
 Frc consts  --      2.0788                 8.8937                 9.9531
 IR Inten    --     79.9529                 0.0487                 9.1690
 Raman Activ --     11.4937                95.6630                44.0813

 - Thermochemistry -
 -------------------
 Temperature   298.150 Kelvin.  Pressure   1.00000 Atm.
 Atom     1 has atomic number  8 and mass  15.99491

 Molecular mass:    18.01056 amu.
 Principal axes and moments of inertia in atomic units:
                           1         2         3
     Eigenvalues --     2.07952   4.38449   6.46400
           X            0.00000   0.00000   1.00000
           Y            1.00000   0.00000   0.00000
           Z           -0.00000   1.00000  -0.00000
 This molecule is an asymmetric top.
 Rotational symmetry number  2.
 Rotational temperatures (Kelvin)     41.65097    19.75464    13.39943
 Rotational constants (GHZ):         867.86543   411.61985   279.19871
 Zero-point vibrational energy      57166.5 (Joules/Mol)
                                   13.66313 (Kcal/Mol)
 Vibrational temperatures:   2588.77  5485.16  5677.17
          (Kelvin)

 Zero-point correction=                           0.021774 (Hartree/Particle)
 Thermal correction to Energy=                    0.024608
 Thermal correction to Enthalpy=                  0.025552
 Thermal correction to Gibbs Free Energy=         0.004129
 Sum of electronic and zero-point Energies=            -75.564186
 Sum of electronic and thermal Energies=               -75.561352
 Sum of electronic and thermal Enthalpies=             -75.560408
 Sum of electronic and thermal Free Energies=          -75.581831

                     E (Thermal)             CV                S
                      KCal/Mol        Cal/Mol-Kelvin    Cal/Mol-Kelvin
 Total                   15.441              5.987             45.087
 Electronic               0.000              0.000              0.000
 Translational            0.889              2.981             34.608
 Rotational               0.889              2.981             10.476
 Vibrational             13.664              0.025              0.003

 Optimization completed.
    -- Stationary point found.
 Normal termination of Gaussian 16 at Wed May 11 20:14:32 2022.
